[Molden Format]
[Title]
 Molden file created by orca_2mkl for BaseName=test_opt_sp+0

[Atoms] AU
C    1   6         -8.8604837502         0.1093049332        -0.0081808573 
H    2   1        -10.6849648967         0.8254609710         0.7070748332 
H    3   1         -8.6674911630         0.7114174391        -1.9933623359 
C    4   6         -6.6605817083         1.1258645750         1.5671784158 
H    5   1         -8.9417207160        -1.9717201198         0.0480100233 
O    6   8         -6.5719145766         3.8102026357         1.4924466876 
H    7   1         -6.9124819110         0.4745909348         3.5489628509 
C    8   6         -4.1036818322         0.1902407356         0.6333184913 
H    9   1         -3.7950021211         0.7912613907        -1.3373166733 
H   10   1         -2.5763727074         0.9918961473         1.7961004892 
H   11   1         -3.9867611714        -1.8858745442         0.7219874491 
H   12   1         -8.1745733008         4.4493526301         2.0887047250 
[GTO]
  1 0
s   5 1.0 
     1238.4016938000         0.8208956682
      186.2900499200         1.4766449896
       42.2511763460         2.1526124058
       11.6765579320         2.1081722461
        3.5930506482         0.8290999933
s   1 1.0 
        0.4024514736         0.3601183351
s   1 1.0 
        0.1309018267         0.1551027052
p   3 1.0 
        9.4680970621         1.3467645142
        2.0103545142         1.0678070931
        0.5477100471         0.5108735714
p   1 1.0 
        0.1526861379         0.1360471976
d   1 1.0 
        0.8000000000         1.9292013661

  2 0
s   3 1.0 
       13.0107010000         0.1634903809
        1.9622572000         0.2773515510
        0.4445379600         0.3157501452
s   1 1.0 
        0.1219496200         0.1470772262
p   1 1.0 
        0.8000000000         1.0784563492

  3 0
s   3 1.0 
       13.0107010000         0.1634903809
        1.9622572000         0.2773515510
        0.4445379600         0.3157501452
s   1 1.0 
        0.1219496200         0.1470772262
p   1 1.0 
        0.8000000000         1.0784563492

  4 0
s   5 1.0 
     1238.4016938000         0.8208956682
      186.2900499200         1.4766449896
       42.2511763460         2.1526124058
       11.6765579320         2.1081722461
        3.5930506482         0.8290999933
s   1 1.0 
        0.4024514736         0.3601183351
s   1 1.0 
        0.1309018267         0.1551027052
p   3 1.0 
        9.4680970621         1.3467645142
        2.0103545142         1.0678070931
        0.5477100471         0.5108735714
p   1 1.0 
        0.1526861379         0.1360471976
d   1 1.0 
        0.8000000000         1.9292013661

  5 0
s   3 1.0 
       13.0107010000         0.1634903809
        1.9622572000         0.2773515510
        0.4445379600         0.3157501452
s   1 1.0 
        0.1219496200         0.1470772262
p   1 1.0 
        0.8000000000         1.0784563492

  6 0
s   5 1.0 
     2266.1767785000        -1.2615859742
      340.8701019100        -2.2748500410
       77.3631351670        -3.3479623295
       21.4796449400        -3.3299980531
        6.6589433124        -1.3203828288
s   1 1.0 
        0.8097597567         0.6083832301
s   1 1.0 
        0.2553077223         0.2559811911
p   3 1.0 
       17.7215043170         3.2460107647
        3.8635505440         2.5734959178
        1.0480920883         1.1208372892
p   1 1.0 
        0.2764154441         0.2856886381
d   1 1.0 
        1.2000000000         3.9222679946

  7 0
s   3 1.0 
       13.0107010000         0.1634903809
        1.9622572000         0.2773515510
        0.4445379600         0.3157501452
s   1 1.0 
        0.1219496200         0.1470772262
p   1 1.0 
        0.8000000000         1.0784563492

  8 0
s   5 1.0 
     1238.4016938000         0.8208956682
      186.2900499200         1.4766449896
       42.2511763460         2.1526124058
       11.6765579320         2.1081722461
        3.5930506482         0.8290999933
s   1 1.0 
        0.4024514736         0.3601183351
s   1 1.0 
        0.1309018267         0.1551027052
p   3 1.0 
        9.4680970621         1.3467645142
        2.0103545142         1.0678070931
        0.5477100471         0.5108735714
p   1 1.0 
        0.1526861379         0.1360471976
d   1 1.0 
        0.8000000000         1.9292013661

  9 0
s   3 1.0 
       13.0107010000         0.1634903809
        1.9622572000         0.2773515510
        0.4445379600         0.3157501452
s   1 1.0 
        0.1219496200         0.1470772262
p   1 1.0 
        0.8000000000         1.0784563492

 10 0
s   3 1.0 
       13.0107010000         0.1634903809
        1.9622572000         0.2773515510
        0.4445379600         0.3157501452
s   1 1.0 
        0.1219496200         0.1470772262
p   1 1.0 
        0.8000000000         1.0784563492

 11 0
s   3 1.0 
       13.0107010000         0.1634903809
        1.9622572000         0.2773515510
        0.4445379600         0.3157501452
s   1 1.0 
        0.1219496200         0.1470772262
p   1 1.0 
        0.8000000000         1.0784563492

 12 0
s   3 1.0 
       13.0107010000         0.1634903809
        1.9622572000         0.2773515510
        0.4445379600         0.3157501452
s   1 1.0 
        0.1219496200         0.1470772262
p   1 1.0 
        0.8000000000         1.0784563492

[5D]
[7F]
[9G]
[MO]
 Sym=     1a
 Ene= -1.91177203690167E+01
 Spin= Alpha
 Occup= 2.000000
  1      -0.000074041028
  2       0.000535032686
  3       0.004265894695
  4       0.000322823110
  5       0.000234172702
  6       0.000236054303
  7       0.002168668887
  8       0.001293698637
  9       0.000121819475
 10      -0.000073132527
 11       0.000056274583
 12       0.000138515368
 13       0.000038111690
 14       0.000289564491
 15       0.000079018769
 16       0.001016509281
 17       0.000248724854
 18       0.000055981582
 19       0.000106353323
 20      -0.000014522911
 21      -0.000210390854
 22       0.000211133871
 23       0.000195242373
 24       0.000184178115
 25      -0.000163007413
 26       0.001886962490
 27      -0.023480470120
 28       0.000181518689
 29      -0.000648830733
 30      -0.000414809928
 31      -0.001869792674
 32      -0.006558285847
 33       0.002827482613
 34      -0.000205253465
 35      -0.000003446790
 36      -0.000090848377
 37      -0.000401974376
 38       0.000125250318
 39      -0.000002703042
 40      -0.000640926530
 41      -0.000201046975
 42      -0.000157907693
 43      -0.000025687776
 44       0.988611274232
 45      -0.042358357812
 46       0.028123786996
 47       0.002057487021
 48       0.001300034901
 49      -0.000780302860
 50       0.000046244555
 51      -0.007402046833
 52      -0.000147176122
 53       0.000246440174
 54       0.000504396260
 55      -0.000225877381
 56      -0.000771937630
 57       0.000644447838
 58       0.001057033325
 59       0.002137024776
 60       0.000124824251
 61       0.000556638711
 62      -0.000108072152
 63      -0.000082420643
 64       0.000712713762
 65       0.006529540845
 66      -0.000461837733
 67       0.000323400656
 68       0.000162291729
 69      -0.002376287816
 70       0.000563050710
 71       0.000520311861
 72      -0.000049053029
 73      -0.000042928610
 74       0.000050854093
 75       0.000131113502
 76      -0.000242186095
 77       0.000134729300
 78       0.000088360864
 79      -0.000281198494
 80       0.000263286022
 81       0.000144066057
 82       0.000200559789
 83       0.000132325176
 84      -0.000238129585
 85       0.000170987371
 86       0.000064925524
 87      -0.000257636314
 88      -0.001321131734
 89       0.000200202473
 90      -0.000179463773
 91      -0.000035710424
 92       0.001724838144
 93      -0.001301850982
 94       0.002909862435
 95      -0.000609339675
 96      -0.001031710385
 Sym=     1a
 Ene= -1.02291059392865E+01
 Spin= Alpha
 Occup= 2.000000
  1       0.000890959178
  2      -0.002207973272
  3       0.017166666339
  4      -0.001092892502
  5      -0.000618895878
  6      -0.000814233609
  7       0.005007754471
  8       0.002762649004
  9       0.003015852433
 10      -0.000036337908
 11      -0.000965850885
 12      -0.000494952384
 13      -0.000423849280
 14      -0.000669165208
 15      -0.000338858154
 16      -0.001119074024
 17       0.000060756241
 18       0.000007277713
 19       0.000115210421
 20      -0.000389146632
 21      -0.000281722835
 22       0.000315236599
 23       0.000137529861
 24       0.000314861517
 25       0.988204699135
 26       0.049761550245
 27      -0.050070955120
 28      -0.000183408261
 29       0.000305969939
 30       0.000691791659
 31       0.000494691188
 32       0.005575378153
 33       0.005544457640
 34       0.000580182873
 35      -0.000244259989
 36      -0.000442320897
 37      -0.000493354295
 38      -0.000028585963
 39      -0.000072655662
 40      -0.000033598705
 41       0.000269635573
 42       0.000225181648
 43       0.000252204840
 44      -0.000143302246
 45      -0.000092610655
 46       0.000325740052
 47      -0.000017430382
 48       0.000608727483
 49       0.000107731063
 50       0.001207971638
 51       0.002497650310
 52      -0.001438519053
 53       0.000972243670
 54       0.000223634525
 55       0.000176239989
 56       0.001147596504
 57      -0.000109327476
 58      -0.002917492366
 59       0.008238814039
 60      -0.000357566279
 61      -0.001106599990
 62       0.002288177740
 63       0.000970449657
 64      -0.001824560489
 65       0.013889235386
 66       0.001334325674
 67      -0.000592061367
 68      -0.000530974936
 69      -0.005041909276
 70       0.001840018528
 71       0.000995588305
 72       0.000366763324
 73       0.000776709661
 74      -0.000308818755
 75      -0.000708497744
 76       0.000763225507
 77      -0.000192641141
 78      -0.000048577196
 79      -0.000427708576
 80       0.000193601376
 81       0.000253703962
 82      -0.000192335270
 83      -0.000302197550
 84      -0.000161875175
 85       0.000052766525
 86       0.000070152207
 87       0.000039358688
 88       0.000032767590
 89      -0.000383821512
 90       0.000220721715
 91       0.000211700720
 92       0.001170640046
 93       0.001381150028
 94       0.000033810250
 95      -0.001010752736
 96       0.000141003934
 Sym=     1a
 Ene= -1.01772771026479E+01
 Spin= Alpha
 Occup= 2.000000
  1      -0.987854676087
  2      -0.051825135659
  3       0.043025303732
  4       0.000778463000
  5       0.000400799219
  6       0.000620242666
  7       0.002238380830
  8       0.000163382764
  9       0.000144035554
 10       0.000059993288
 11       0.000581147963
 12       0.000239999643
 13       0.000288878995
 14       0.000308919378
 15       0.003313519749
 16      -0.007200992413
 17       0.002299018814
 18      -0.001122739937
 19      -0.001118085896
 20       0.002730857070
 21      -0.008486860821
 22      -0.000590873505
 23      -0.000863113069
 24       0.002402083420
 25       0.000219158407
 26       0.000939271691
 27      -0.003691776721
 28      -0.001086562321
 29      -0.000372197813
 30      -0.000659515553
 31       0.002608096200
 32       0.001035122096
 33      -0.000336615860
 34      -0.000175777707
 35       0.001050783980
 36       0.000512676310
 37       0.000539738926
 38       0.000678860297
 39       0.002943500389
 40      -0.008071348326
 41      -0.000204214757
 42       0.002717750193
 43      -0.000144957238
 44       0.000072607295
 45       0.000794616006
 46      -0.002051531404
 47      -0.000145595145
 48      -0.000176767495
 49      -0.000151029931
 50       0.001044293326
 51       0.000931086571
 52       0.000717179647
 53       0.000074135519
 54      -0.000087430402
 55      -0.000150262852
 56      -0.000034497904
 57      -0.000077765136
 58       0.000082817155
 59      -0.000212416940
 60       0.000428274490
 61       0.000210504579
 62       0.000296722809
 63       0.001616644924
 64       0.001449722738
 65      -0.005912075357
 66      -0.000149846500
 67      -0.000058756903
 68      -0.000136421511
 69       0.003228097550
 70       0.000528826860
 71       0.002096052873
 72       0.000070586487
 73      -0.000108031352
 74      -0.000000375872
 75      -0.000143631476
 76      -0.000020359461
 77       0.000674132073
 78       0.001569002563
 79      -0.000115215258
 80      -0.000136625596
 81      -0.000068424758
 82      -0.000303981585
 83      -0.000969222039
 84      -0.000030176544
 85       0.000089643419
 86       0.000017225648
 87       0.000506063911
 88       0.001123018291
 89      -0.000189811199
 90      -0.000031808844
 91      -0.000196957011
 92       0.000506299185
 93      -0.000234825346
 94       0.000102889013
 95       0.000063812694
 96       0.000024958228
 Sym=     1a
 Ene= -1.01711233545930E+01
 Spin= Alpha
 Occup= 2.000000
  1      -0.001730885021
  2       0.001295494593
  3      -0.005807420049
  4       0.000188720742
  5      -0.000044983531
  6      -0.000099678265
  7      -0.003796298143
  8       0.000349597104
  9       0.001401103745
 10       0.000106047852
 11       0.000027817000
 12       0.000016596227
 13      -0.000169213667
 14       0.000006096976
 15      -0.000328865776
 16      -0.001006783231
 17       0.000040716755
 18       0.000105613214
 19       0.000016130069
 20       0.000739039651
 21       0.001660262678
 22       0.000136935793
 23      -0.000143457770
 24      -0.000022060306
 25       0.000315786286
 26       0.000904440845
 27      -0.004043274926
 28       0.001261298619
 29      -0.000370421826
 30      -0.000340574590
 31      -0.002199840601
 32       0.000895439731
 33      -0.001324410059
 34      -0.000614070980
 35      -0.000698686462
 36       0.000264466685
 37       0.000857091111
 38      -0.000694310623
 39       0.000498538300
 40       0.001072420017
 41       0.000258598343
 42      -0.000017877153
 43      -0.000161889298
 44       0.000069284652
 45       0.000657409540
 46      -0.001477109014
 47       0.000164687288
 48      -0.000116310461
 49      -0.000113526873
 50      -0.001572210917
 51       0.001220823332
 52       0.000919912128
 53       0.000040177392
 54       0.000021974474
 55      -0.000074261948
 56       0.000032461473
 57       0.000113740233
 58       0.000168330192
 59      -0.000131376444
 60      -0.000529932242
 61       0.000206518712
 62       0.000181066403
 63      -0.987835366783
 64      -0.052107750160
 65       0.043587127752
 66      -0.000732422346
 67       0.000323410472
 68       0.000391370523
 69      -0.002290182791
 70       0.000507502790
 71      -0.000397166799
 72      -0.000168855951
 73      -0.000434316018
 74       0.000114957505
 75       0.000495571132
 76      -0.000357806097
 77       0.002642242231
 78      -0.008623444197
 79      -0.000007196957
 80      -0.000897431773
 81       0.002451184158
 82       0.003221020843
 83      -0.007441408259
 84      -0.001818761556
 85      -0.001237203662
 86      -0.001640853417
 87       0.003012013638
 88      -0.007969384903
 89       0.000155303809
 90       0.002750157531
 91      -0.000122898658
 92      -0.000774182702
 93       0.000016933830
 94      -0.000160823881
 95      -0.000076316211
 96       0.000023714174
 Sym=     1a
 Ene= -9.97462804504639E-01
 Spin= Alpha
 Occup= 2.000000
  1       0.023059682081
  2      -0.040019383865
  3      -0.014284667878
  4      -0.014982355743
  5      -0.014403910286
  6      -0.011191535328
  7      -0.006999951951
  8      -0.007757208827
  9      -0.003089418541
 10       0.000370446079
 11      -0.002401293738
 12      -0.001607386648
 13      -0.000933892024
 14      -0.001990814962
 15      -0.010107861846
 16      -0.001000353296
 17      -0.001991792430
 18       0.000046474054
 19       0.000126410184
 20      -0.008477114689
 21       0.000070239241
 22      -0.000124744459
 23       0.000271746525
 24      -0.001724042239
 25       0.102665282757
 26      -0.201863203943
 27      -0.020214631473
 28       0.003053156042
 29      -0.110098891877
 30       0.006040893584
 31       0.005012614522
 32      -0.019550077358
 33       0.000813946605
 34       0.011696317365
 35      -0.000010276374
 36      -0.001113517056
 37       0.016176355265
 38       0.002831649567
 39      -0.006688735410
 40      -0.003783617332
 41      -0.000146479565
 42      -0.001790658407
 43      -0.000147598113
 44      -0.262597540913
 45      -0.523904362018
 46      -0.285488620910
 47       0.082195850194
 48       0.072067398436
 49      -0.031248713577
 50       0.003208667031
 51       0.033362099187
 52      -0.002057916803
 53       0.006942769325
 54       0.003492344543
 55       0.000134901382
 56       0.003925100585
 57       0.000104876663
 58      -0.031913818017
 59      -0.006528388710
 60      -0.000946121717
 61      -0.002175731498
 62       0.006003098563
 63       0.022456434256
 64      -0.044186744950
 65      -0.003411212503
 66       0.018542283473
 67      -0.014509231843
 68      -0.006283971379
 69       0.005625908303
 70       0.004661915297
 71      -0.003681308254
 72       0.001429419062
 73       0.001568927256
 74      -0.000817902048
 75      -0.001175820779
 76       0.002310613109
 77      -0.010646407802
 78      -0.004784566653
 79       0.000913600541
 80      -0.000532959383
 81      -0.002027984226
 82      -0.010387686487
 83      -0.004852175398
 84       0.002210952864
 85      -0.000419060118
 86       0.000942767617
 87      -0.005173389134
 88       0.001897913672
 89       0.000547791573
 90      -0.001234851536
 91      -0.000065434545
 92      -0.181175644421
 93      -0.005759943392
 94      -0.024898455824
 95       0.014975795192
 96       0.009259772150
 Sym=     1a
 Ene= -7.56935906601586E-01
 Spin= Alpha
 Occup= 2.000000
  1       0.143055581426
  2      -0.280542118344
  3      -0.046149900695
  4      -0.050217786216
  5      -0.009440570286
  6      -0.028414214448
  7      -0.010399173993
  8       0.005963571358
  9      -0.008689870321
 10       0.000486542269
 11      -0.005076671285
 12      -0.001558809663
 13      -0.003809335919
 14      -0.002314324254
 15      -0.077951362318
 16      -0.019512811673
 17      -0.009982834848
 18       0.003172851513
 19       0.003288871565
 20      -0.083819343787
 21      -0.015547167596
 22       0.000448929951
 23       0.002864015578
 24      -0.010512486836
 25       0.155742559043
 26      -0.316514879767
 27      -0.099349206284
 28      -0.014741098866
 29       0.087689567426
 30       0.050370307948
 31      -0.000113852988
 32       0.031146308524
 33       0.030461022271
 34       0.001040015672
 35      -0.001286325481
 36      -0.002944805103
 37      -0.010087241991
 38      -0.001800396616
 39      -0.086721191549
 40      -0.011432495075
 41      -0.001268487534
 42      -0.011076933713
 43      -0.000042389654
 44       0.083161443244
 45       0.173905338679
 46       0.102226289529
 47      -0.061622208148
 48       0.076969156692
 49       0.030498557435
 50      -0.010786869208
 51       0.034876135354
 52       0.004251461289
 53       0.000778114630
 54      -0.002155562577
 55       0.000169342043
 56       0.005225661886
 57      -0.001847259217
 58      -0.088660084825
 59      -0.013787237530
 60      -0.001603208296
 61      -0.002068432080
 62       0.010655402632
 63       0.142678458061
 64      -0.276879497045
 65      -0.058578084205
 66       0.059857681823
 67      -0.009662360055
 68      -0.015191650965
 69       0.016580846789
 70       0.001135885199
 71      -0.006771538979
 72       0.002473388099
 73       0.003526139566
 74      -0.000864200475
 75      -0.005416374094
 76       0.002534225315
 77      -0.081590434896
 78      -0.013454198708
 79       0.002167152385
 80       0.003101949105
 81      -0.010052762003
 82      -0.075775709631
 83      -0.015893289068
 84       0.008499705373
 85       0.003862019745
 86       0.005647700388
 87      -0.085258494968
 88      -0.012204112304
 89       0.001478718790
 90      -0.011155666158
 91       0.000402578646
 92       0.114489072510
 93       0.010715752308
 94       0.013850502531
 95      -0.004036165163
 96      -0.004468947127
 Sym=     1a
 Ene= -6.78261921059222E-01
 Spin= Alpha
 Occup= 2.000000
  1       0.183834770313
  2      -0.371408642294
  3      -0.051835521666
  4       0.018957743551
  5      -0.005273828083
  6      -0.006875117056
  7       0.015613215406
  8      -0.000784317262
  9       0.002752093155
 10      -0.000609254052
 11      -0.000843190268
 12      -0.001187076374
 13       0.000597429412
 14      -0.000454776939
 15      -0.143970178321
 16      -0.029937899095
 17      -0.013326035426
 18       0.005268166806
 19       0.005420760267
 20      -0.127806819478
 21      -0.030365161542
 22       0.002151776785
 23       0.004709748011
 24      -0.014053398366
 25      -0.008388176182
 26       0.019700170515
 27       0.001375508099
 28       0.170180089130
 29       0.014655796780
 30       0.022861319332
 31       0.087497185348
 32       0.000295715886
 33       0.007815606398
 34      -0.003036017031
 35      -0.010835018726
 36      -0.001427560174
 37       0.000354027550
 38      -0.005422370256
 39      -0.131121425288
 40      -0.033852893423
 41      -0.000029804176
 42      -0.015189814059
 43       0.000502706987
 44       0.007356584846
 45       0.015623577161
 46       0.016033165424
 47       0.056291583263
 48      -0.022862504726
 49       0.000084633839
 50       0.024426583907
 51      -0.010144470985
 52       0.000684012791
 53       0.000093673915
 54       0.000019728214
 55      -0.000605459552
 56      -0.002380066304
 57      -0.003389046522
 58       0.004584862539
 59       0.003131352709
 60       0.002589360806
 61       0.000483568793
 62      -0.000120238606
 63      -0.170024199444
 64       0.344568855141
 65       0.038026099882
 66       0.004566574444
 67       0.011611713873
 68       0.013326883259
 69       0.016503602337
 70      -0.001618183376
 71       0.001731165163
 72      -0.000035783958
 73      -0.001593717565
 74       0.001017708610
 75      -0.000149840327
 76      -0.001462688812
 77       0.116326251817
 78       0.029774287745
 79      -0.001833246086
 80      -0.003919525033
 81       0.013124705930
 82       0.128442693347
 83       0.023053129175
 84      -0.010226431794
 85      -0.005474184908
 86      -0.007864711378
 87       0.116923060579
 88       0.029399037803
 89      -0.000567419855
 90       0.013742599680
 91      -0.000486540195
 92      -0.032529743785
 93      -0.001678791276
 94      -0.001831447416
 95       0.002205372245
 96       0.002070787681
 Sym=     1a
 Ene= -5.74580350446659E-01
 Spin= Alpha
 Occup= 2.000000
  1       0.073534145990
  2      -0.147154345920
  3      -0.013095985099
  4       0.073916247247
  5       0.044375656440
  6       0.079525500537
  7       0.024894571769
  8       0.009533743039
  9       0.040069271213
 10       0.001309046921
 11       0.006088810630
 12       0.003070680307
 13       0.002381644121
 14       0.003370278401
 15      -0.080329774996
 16      -0.028822310656
 17      -0.004963612338
 18       0.003829207720
 19       0.004185915703
 20      -0.095703986784
 21      -0.021076433709
 22       0.002758047369
 23       0.004168755605
 24      -0.006685321357
 25      -0.154901313209
 26       0.348615217542
 27       0.001986179128
 28      -0.003620454176
 29       0.068070939219
 30       0.088777590615
 31      -0.015424889773
 32       0.027696748438
 33       0.032554606562
 34      -0.001747653522
 35      -0.000170901621
 36      -0.004189170476
 37      -0.009708140973
 38       0.006258140977
 39      -0.092967335629
 40      -0.031218904100
 41       0.001591537563
 42      -0.007778363428
 43       0.001779273025
 44      -0.037498194577
 45      -0.079305590509
 46      -0.028843596169
 47       0.121815459716
 48      -0.242494462780
 49      -0.012837483319
 50       0.034912339753
 51      -0.118363873751
 52       0.007438588498
 53      -0.001939637780
 54       0.002318032123
 55      -0.004532968148
 56      -0.011909142187
 57       0.005104532459
 58       0.167546572254
 59       0.051140094464
 60       0.001586334177
 61       0.004906298460
 62      -0.012203681646
 63       0.109376746685
 64      -0.225753963878
 65      -0.003207900784
 66      -0.106375497000
 67       0.060366498550
 68       0.066023481055
 69      -0.049129767650
 70       0.030521696377
 71       0.035211795616
 72      -0.001551973110
 73      -0.005809712903
 74       0.002576175586
 75       0.004871548354
 76      -0.004261583026
 77      -0.129344761764
 78      -0.034396610274
 79      -0.000478745863
 80       0.005114745289
 81      -0.010414784532
 82      -0.104621893269
 83      -0.036381571840
 84       0.004805815700
 85       0.005959398326
 86       0.007467033191
 87      -0.133028871727
 88      -0.037133570864
 89      -0.001401559594
 90      -0.011080204536
 91       0.001653460182
 92      -0.186202301072
 93      -0.045394876110
 94      -0.017887603509
 95       0.000694720571
 96       0.008307336660
 Sym=     1a
 Ene= -5.06156378102827E-01
 Spin= Alpha
 Occup= 2.000000
  1       0.028151632761
  2      -0.061995712695
  3       0.000548489151
  4       0.030358450690
  5      -0.040391281106
  6       0.135582917930
  7       0.022254592465
  8      -0.006776063999
  9       0.046842433785
 10       0.001561025027
 11       0.006082155120
 12       0.002293707878
 13       0.001135216879
 14      -0.002771777156
 15      -0.019423188265
 16      -0.002796258391
 17      -0.000853662687
 18       0.000062682678
 19       0.004464282684
 20      -0.123414228419
 21      -0.042094304839
 22       0.000191923252
 23       0.001084780522
 24      -0.007208884618
 25      -0.042537036505
 26       0.093897450683
 27      -0.033836182501
 28      -0.089895156070
 29      -0.225678087087
 30       0.191065671855
 31      -0.060985979434
 32      -0.074215128949
 33       0.088964900355
 34       0.008530284389
 35      -0.000545207273
 36       0.004805965430
 37       0.010464858522
 38      -0.010418350814
 39       0.003088228732
 40       0.001856473322
 41       0.001222639959
 42      -0.001047341629
 43       0.003899855693
 44      -0.037248880330
 45      -0.082403940327
 46      -0.087064952737
 47      -0.220066371341
 48       0.213361887884
 49       0.150938014406
 50      -0.091869093841
 51       0.087601724698
 52       0.078022784612
 53       0.001431809843
 54      -0.006322891635
 55      -0.004216112696
 56       0.010849257300
 57      -0.000286832362
 58       0.213442614554
 59       0.060947159594
 60       0.000838351264
 61       0.001369553568
 62      -0.011613031330
 63      -0.005028262781
 64       0.009660561881
 65       0.061031217635
 66      -0.010543457985
 67      -0.112807779098
 68       0.074949677208
 69      -0.019646506955
 70      -0.038502961379
 71       0.039153510956
 72      -0.000719514538
 73      -0.004468054857
 74       0.000461249095
 75       0.000962325391
 76       0.004055415199
 77      -0.068064634572
 78      -0.021290223924
 79       0.002129758111
 80      -0.002113763417
 81      -0.003330665047
 82      -0.003420503440
 83      -0.008368934750
 84       0.000375706353
 85      -0.003132873491
 86       0.001527812854
 87       0.081516969997
 88       0.015871366593
 89      -0.001833047589
 90       0.003752189219
 91       0.001777417017
 92       0.228374534774
 93       0.066248804637
 94       0.018198230927
 95      -0.006256938901
 96      -0.003680595550
 Sym=     1a
 Ene= -4.47538566465676E-01
 Spin= Alpha
 Occup= 2.000000
  1       0.024008056158
  2      -0.050246267163
  3      -0.017417492995
  4       0.277086269165
  5       0.085164947835
  6      -0.004887987645
  7       0.109653423586
  8       0.040255316238
  9      -0.008629646888
 10       0.000232684842
 11       0.007058156311
 12      -0.000440235972
 13       0.004258716203
 14       0.007030534418
 15      -0.192938735807
 16      -0.067217601964
 17      -0.006103605966
 18       0.006697351073
 19       0.004061986646
 20       0.016611096990
 21       0.002532103085
 22       0.007506543942
 23       0.002231401480
 24      -0.000050167416
 25      -0.044066145755
 26       0.103169311367
 27       0.038189820183
 28      -0.079394200261
 29      -0.115296920718
 30      -0.249424286681
 31      -0.032078696483
 32      -0.050163777434
 33      -0.106737536364
 34       0.006557272351
 35       0.000442371901
 36       0.002947426947
 37       0.002077625086
 38      -0.007623183583
 39      -0.099769315956
 40      -0.033255562716
 41       0.006416577417
 42      -0.006017826577
 43      -0.000370083779
 44      -0.016571893208
 45      -0.035859735262
 46      -0.041285467628
 47      -0.145968601278
 48       0.077730641370
 49      -0.106436367894
 50      -0.079824229291
 51       0.036906018116
 52      -0.068626235346
 53      -0.002155013593
 54       0.000657610117
 55       0.007371530099
 56       0.005057436007
 57       0.001992587041
 58      -0.093901038898
 59      -0.034490377043
 60      -0.002183182954
 61      -0.003230000211
 62       0.002144847412
 63       0.009194523708
 64      -0.017323455183
 65      -0.008756613627
 66      -0.177078316089
 67      -0.054656151952
 68      -0.155958639740
 69      -0.062574280697
 70      -0.024886595868
 71      -0.057892481973
 72      -0.002675067997
 73      -0.001537007795
 74      -0.006154326483
 75       0.003162664366
 76      -0.003227638720
 77       0.071523371263
 78       0.024720323948
 79      -0.006286815096
 80      -0.002685303372
 81       0.000441832076
 82      -0.191249264339
 83      -0.068504138033
 84       0.007370640213
 85       0.003435368214
 86       0.003086166921
 87       0.016982473524
 88       0.000713070983
 89      -0.004934021949
 90      -0.000607336519
 91      -0.004223162702
 92       0.085363514188
 93       0.023954519539